ITEM: TIMESTEP
50000000
ITEM: NUMBER OF ATOMS
22410
ITEM: BOX BOUNDS ff ff ff
-0.05 0.55
-0.05 0.55
-0.5 4
ITEM: ATOMS id type x y z vx vy vz fx fy fz radius mass 
3350 1 0.0791657 0.0728569 0.00199949 0.0117678 -0.00331619 -1.42557e-13 -1.08539e-16 1.55321e-16 0 0.002 8.84672e-05 
8407 1 0.0690343 0.0906224 0.000999839 0.0825659 -0.0806233 5.67605e-13 -5.31865e-16 6.15486e-16 0 0.001 1.10584e-05 
6727 1 0.0859167 0.0832197 0.000999839 0.0144887 -0.130921 -6.14231e-13 1.43285e-17 1.23172e-15 0 0.001 1.10584e-05 
2553 1 0.0964074 0.0711493 0.0234125 -1.8428e-08 -7.64407e-09 -1.79117e-08 4.21171e-05 -8.77841e-05 -7.64663e-05 0.014 0.0303443 
313 1 0.0657271 0.0933651 0.0153219 4.32117e-08 -3.41872e-08 -7.29672e-09 -2.12168e-07 -3.58274e-07 -7.59175e-06 0.008 0.0056619 
2899 1 0.079374 0.0825528 0.0099895 8.65465e-08 -4.52167e-08 -3.21434e-08 7.16161e-07 -1.9996e-06 -1.94885e-05 0.01 0.0110584 
4318 1 0.0822367 0.0948749 0.0254696 9.22174e-08 -4.48113e-08 -6.22426e-08 2.47369e-07 -2.42561e-05 -3.32404e-05 0.01 0.0110584 
4622 1 0.0794746 0.0796221 0.0346035 2.79939e-08 -7.64643e-10 -4.7904e-08 6.5101e-06 -3.6616e-06 -2.12707e-05 0.008 0.0056619 
2473 1 0.099422 0.0696483 0.0551018 -4.72335e-08 -1.21901e-08 4.29502e-08 2.77681e-05 -8.04928e-05 2.76061e-05 0.015 0.0373221 
97 1 0.0701427 0.0986205 0.0548447 -3.37832e-08 -2.02745e-08 -3.658e-08 3.99464e-05 -5.96203e-05 -5.09684e-05 0.015 0.0373221 
4213 1 0.0816705 0.0811862 0.070058 -3.12333e-08 -1.48439e-10 -9.10623e-09 1.92019e-05 -1.65494e-05 -1.07343e-05 0.011 0.0147187 
4176 1 0.0962304 0.0970273 0.0724019 -5.38778e-08 1.0648e-08 -2.68348e-08 3.55297e-05 -3.27196e-05 -3.22065e-05 0.011 0.0147187 
3035 1 0.0915366 0.0689416 0.116093 -1.89891e-08 2.00535e-08 6.38186e-09 1.0681e-05 -9.37522e-06 -6.65672e-06 0.009 0.00806158 
4166 1 0.0801 0.0830751 0.108185 -1.27862e-08 9.28292e-09 -2.36677e-08 3.84385e-05 -3.39439e-05 -3.65012e-05 0.011 0.0147187 
342 1 0.0868025 0.0708776 0.135397 -7.53891e-08 1.14123e-07 6.90843e-08 1.78889e-05 -1.87271e-05 -1.63667e-05 0.007 0.00379303 
3156 1 0.0975107 0.0611229 0.128463 -1.43034e-08 1.03602e-08 2.19622e-09 3.69518e-06 -6.75721e-07 -9.54322e-07 0.007 0.00379303 
4477 1 0.0777285 0.0941886 0.124631 -2.32411e-08 2.97954e-08 -7.67392e-08 5.80253e-05 -2.91734e-05 -3.15971e-05 0.009 0.00806158 
4764 1 0.0798903 0.0777982 0.125386 -1.29634e-07 9.17501e-08 4.05811e-08 2.54844e-05 -1.11996e-05 -1.19144e-05 0.007 0.00379303 
385 1 0.0686558 0.0846888 0.163123 -3.29716e-09 1.18773e-08 1.96315e-08 1.95881e-07 -5.05773e-07 -3.55588e-08 0.004 0.000707738 
73 1 0.0714054 0.0987024 0.149236 -1.81584e-08 -1.58916e-08 -2.25624e-08 8.82484e-05 -0.000102012 -4.50637e-05 0.016 0.0452952 
4754 1 0.0667706 0.0909156 0.184088 -1.20387e-08 4.9219e-10 4.52817e-08 1.6829e-06 -2.16475e-06 -7.32614e-06 0.007 0.00379303 
3267 1 0.0768743 0.0778019 0.189274 2.63335e-08 2.22521e-08 2.80628e-08 -3.2251e-07 -1.28489e-06 -9.16537e-07 0.005 0.0013823 
115 1 0.0835655 0.0848352 0.173053 2.1199e-08 2.86089e-08 3.87824e-08 1.54074e-05 -6.40149e-05 -1.11285e-05 0.014 0.0303443 
2568 1 0.093532 0.0738429 0.19725 4.76757e-08 -1.49668e-08 2.6166e-09 -1.22524e-05 4.61851e-06 -1.26328e-05 0.014 0.0303443 
4547 1 0.0771828 0.0898322 0.196226 4.68746e-08 3.33808e-08 5.72897e-08 -8.48293e-06 -7.61769e-06 -1.40324e-05 0.009 0.00806158 
3234 1 0.099877 0.0899786 0.207213 1.07558e-07 -2.09856e-08 1.09815e-08 -4.99496e-06 1.92636e-06 -3.81472e-06 0.006 0.00238862 
3070 1 0.0948939 0.0643278 0.235873 6.0175e-08 -1.36698e-08 -1.55673e-09 1.50297e-06 4.17148e-06 -5.69251e-06 0.008 0.0056619 
4306 1 0.0668651 0.0950532 0.219705 5.59276e-08 -3.67749e-08 5.46061e-08 -2.00997e-05 1.4226e-05 -2.27203e-05 0.01 0.0110584 
2647 1 0.0925888 0.0807877 0.223053 7.06122e-08 -2.80588e-08 -2.27613e-08 -1.48242e-05 3.62189e-05 -8.0728e-06 0.013 0.0242953 
4472 1 0.0943676 0.0987047 0.235328 3.38192e-08 -1.19234e-09 -9.51149e-08 -1.69028e-06 7.6815e-06 1.29401e-05 0.009 0.00806158 
317 1 0.0913155 0.0677888 0.251072 -1.11546e-08 -1.37542e-08 2.93936e-08 1.0782e-05 -2.83449e-06 -8.42519e-06 0.008 0.0056619 
135 1 0.0806778 0.0850365 0.245573 1.35956e-08 1.37257e-08 -6.63687e-08 1.43452e-05 7.37469e-07 3.29848e-05 0.013 0.0242953 
3811 1 0.082656 0.086243 0.272457 -1.14846e-07 2.16258e-07 -1.46148e-07 0.000214333 -0.000217503 0.000121852 0.014 0.0303443 
233 1 0.0705574 0.0912478 0.305036 1.46867e-08 -9.73862e-08 -4.05412e-08 7.84608e-06 -2.21556e-06 2.81921e-05 0.01 0.0110584 
3115 1 0.0913741 0.0677237 0.314278 3.95717e-08 -6.85761e-08 -5.10338e-08 9.68275e-06 -7.34071e-06 1.56156e-06 0.008 0.0056619 
236 1 0.0652598 0.0977268 0.323102 4.27758e-08 -1.05539e-07 -2.73934e-09 6.59516e-06 -8.74695e-06 3.07034e-05 0.01 0.0110584 
3256 1 0.0803636 0.0981516 0.314042 1.17752e-08 -1.94861e-07 -1.36436e-07 1.40322e-06 -5.57983e-06 9.28238e-06 0.005 0.0013823 
2842 1 0.0901848 0.0861897 0.309989 1.08359e-08 -1.3e-07 -6.3431e-08 2.51126e-05 -2.01429e-05 3.34946e-05 0.011 0.0147187 
3921 1 0.0828683 0.0830785 0.332511 5.76377e-08 -1.21913e-07 9.93061e-09 1.35884e-05 -3.97286e-05 3.47448e-05 0.013 0.0242953 
4870 1 0.0813704 0.0734132 0.375088 9.64522e-09 -3.14326e-08 5.90484e-08 5.95372e-07 -9.85898e-07 5.09656e-07 0.005 0.0013823 
3353 1 0.074855 0.0757637 0.374081 1.87301e-09 -3.0626e-08 3.41532e-08 1.9229e-08 -2.91092e-08 1.94597e-08 0.002 8.84672e-05 
4069 1 0.0768802 0.0877169 0.367082 1.23519e-08 -6.24041e-08 6.82441e-08 6.81351e-06 -8.59816e-06 1.52479e-05 0.012 0.0191089 
3995 1 0.098393 0.0790239 0.375796 1.62951e-08 -4.51261e-08 1.07902e-07 1.83382e-05 -3.49066e-05 2.07984e-05 0.013 0.0242953 
2953 1 0.0701828 0.0916181 0.396642 3.53024e-09 -2.76001e-08 5.97618e-08 3.12451e-06 -2.96393e-06 5.1854e-06 0.01 0.0110584 
369 1 0.0804317 0.0995265 0.378569 1.04138e-08 -6.89938e-08 9.22953e-08 5.17864e-07 -7.37252e-07 1.45281e-06 0.005 0.0013823 
4247 1 0.0877114 0.0752872 0.397084 1.8259e-08 -9.72735e-10 6.93163e-08 4.73716e-06 -6.12372e-06 3.34471e-06 0.011 0.0147187 
3789 1 0.0914336 0.0927829 0.441203 4.98695e-09 6.37495e-08 1.31829e-07 3.63411e-05 -1.01676e-06 -7.74953e-06 0.014 0.0303443 
2970 1 0.0889904 0.0713496 0.448861 -2.05464e-08 4.72003e-08 7.53398e-08 4.63784e-06 1.79743e-06 1.46608e-06 0.009 0.00806158 
4770 1 0.0753941 0.0822623 0.44968 -3.95539e-09 2.39839e-08 6.8526e-08 2.20064e-06 1.67158e-07 -1.30373e-07 0.007 0.00379303 
3248 1 0.0795973 0.0752642 0.458473 -4.12472e-08 -1.08602e-08 4.35993e-08 3.11191e-07 1.4529e-07 -6.63803e-08 0.005 0.0013823 
413 1 0.0781794 0.0908157 0.449945 -2.73639e-09 3.99454e-08 1.22633e-07 7.9425e-08 8.90337e-09 -8.3444e-09 0.002 8.84672e-05 
3133 1 0.096849 0.0615753 0.482684 8.98092e-10 6.63687e-08 5.74083e-08 2.68223e-06 9.26002e-07 -6.95905e-07 0.007 0.00379303 
92 1 0.0728784 0.0959388 0.475005 1.10939e-09 4.92122e-08 1.09861e-07 2.08181e-05 2.71301e-05 -1.28014e-05 0.015 0.0373221 
354 1 0.060914 0.0962963 0.492256 -8.97255e-09 -4.62479e-08 7.21957e-08 1.78831e-07 2.46865e-06 -5.97407e-07 0.006 0.00238862 
259 1 0.0828713 0.0790481 0.491555 -7.8712e-08 7.20059e-08 3.77262e-08 1.71599e-05 6.2674e-06 -2.8896e-06 0.01 0.0110584 
2523 1 0.0983955 0.0805839 0.472043 7.82856e-09 1.17954e-07 1.29431e-07 6.64499e-05 2.5138e-05 -1.40667e-05 0.015 0.0373221 
3144 1 0.08413 0.0735554 0.511192 -1.10738e-07 8.64484e-11 6.68964e-09 -7.62274e-06 1.21669e-06 -3.95896e-06 0.007 0.00379303 
289 1 0.07546 0.086446 0.507394 -1.72126e-07 -3.19996e-08 2.72196e-09 -1.18168e-05 6.85506e-06 -9.8613e-06 0.009 0.00806158 
3723 1 0.0989276 0.0953467 0.510655 3.31163e-08 1.03101e-07 1.70893e-07 -2.02367e-05 0.000103848 -4.75612e-05 0.015 0.0373221 
305 1 0.0643084 0.0949363 0.526805 1.37078e-08 -1.85232e-08 5.07658e-08 1.16787e-06 4.77597e-06 -8.5687e-06 0.008 0.0056619 
170 1 0.0805836 0.0839219 0.5305 7.67834e-08 4.98246e-08 1.05709e-07 -7.53864e-06 1.77833e-05 -2.39123e-05 0.012 0.0191089 
4495 1 0.091936 0.0685465 0.539163 2.42057e-08 2.77182e-08 9.18104e-08 -7.95445e-06 1.40698e-05 -2.59657e-06 0.009 0.00806158 
3228 1 0.0990807 0.0589622 0.548211 1.38536e-08 4.01368e-09 4.26302e-08 -3.27116e-06 2.32759e-06 -1.02647e-06 0.006 0.00238862 
2637 1 0.0830722 0.0830119 0.556468 1.04758e-07 -1.58863e-08 1.8218e-07 -3.74381e-05 8.92205e-05 -4.49991e-05 0.013 0.0242953 
307 1 0.0660006 0.0928143 0.563432 8.07306e-08 1.54687e-08 1.55678e-07 -8.1478e-06 9.83244e-06 -3.26286e-06 0.008 0.0056619 
155 1 0.0710084 0.0952103 0.583544 1.28613e-07 7.06798e-08 2.24503e-07 -2.896e-06 2.25194e-05 -3.12065e-05 0.013 0.0242953 
2990 1 0.0829592 0.0774539 0.578893 6.76032e-08 4.9758e-08 1.17812e-07 -5.76181e-06 5.73527e-06 -6.75806e-06 0.009 0.00806158 
4159 1 0.0940163 0.0972978 0.57226 1.7483e-07 -3.03334e-08 2.82143e-07 -9.83111e-06 6.8241e-05 -2.36017e-05 0.011 0.0147187 
5029 1 0.0805517 0.0700677 0.58668 2.05878e-08 -1.81743e-08 1.93537e-08 -2.74521e-08 5.36845e-08 -1.60123e-08 0.002 8.84672e-05 
4939 1 0.0859647 0.0674804 0.586667 2.97756e-08 -6.50808e-09 2.38739e-08 -4.31575e-07 5.18725e-07 -3.8518e-07 0.004 0.000707738 
411 1 0.089758 0.0710687 0.589621 3.72233e-08 -1.95396e-08 6.20275e-08 -8.61693e-08 1.08717e-07 -7.27079e-08 0.002 8.84672e-05 
219 1 0.076849 0.0864356 0.605045 1.05061e-07 1.40515e-07 2.62491e-07 8.64942e-06 1.5045e-06 -1.14103e-05 0.011 0.0147187 
3335 1 0.0900836 0.0759115 0.588424 6.23638e-08 -1.93925e-08 1.21643e-07 9.79743e-08 5.14705e-07 -2.09444e-07 0.003 0.000298577 
4469 1 0.0935157 0.0873495 0.589595 1.81369e-07 -3.80485e-08 2.51991e-07 6.85572e-05 7.21559e-06 -1.75234e-05 0.009 0.00806158 
2884 1 0.0880123 0.0738448 0.617523 1.43204e-08 1.21249e-07 3.00919e-07 5.56255e-06 -1.78588e-08 1.07376e-05 0.01 0.0110584 
4752 1 0.0668566 0.0907052 0.620205 4.17935e-08 1.4462e-07 2.10097e-07 2.25651e-06 -1.84989e-07 -1.60937e-06 0.007 0.00379303 
273 1 0.0820063 0.0901614 0.625014 5.24835e-08 3.84548e-07 4.61554e-07 9.3165e-06 -4.02779e-07 1.00486e-05 0.009 0.00806158 
188 1 0.097814 0.0933321 0.611374 1.57971e-07 2.83183e-07 5.02771e-07 1.76091e-05 1.15527e-06 -1.44859e-05 0.012 0.0191089 
3334 1 0.0827174 0.0693078 0.649539 4.42339e-08 2.87e-07 3.00441e-07 -3.28821e-08 -3.48544e-08 -9.50074e-08 0.003 0.000298577 
2692 1 0.0940406 0.0704804 0.639781 -1.08126e-07 5.06273e-07 2.78759e-07 1.42292e-05 -2.11609e-05 6.22683e-06 0.012 0.0191089 
4605 1 0.073164 0.0858438 0.671609 -3.96458e-07 1.06604e-06 9.67354e-07 1.92995e-05 -3.10638e-06 2.61515e-05 0.008 0.0056619 
2838 1 0.0810344 0.0821735 0.65478 -1.53405e-07 7.85993e-07 4.94184e-07 3.8127e-05 -1.36823e-05 2.56186e-05 0.011 0.0147187 
4169 1 0.0882292 0.0979034 0.670779 -9.18996e-08 1.48942e-06 1.86618e-06 6.96865e-05 9.43896e-09 1.29059e-05 0.011 0.0147187 
4896 1 0.080177 0.0896507 0.681869 -5.37414e-07 5.77982e-07 1.41528e-06 2.42734e-05 -3.66663e-06 1.05977e-05 0.005 0.0013823 
1112 1 0.0898367 0.0896804 0.680718 -2.15169e-07 7.69607e-07 1.46868e-06 5.92063e-07 1.77639e-07 2.18036e-07 0.002 8.84672e-05 
2776 1 0.0894221 0.0760386 0.677601 -1.09975e-06 6.99205e-07 -1.06205e-09 8.49037e-05 -5.05399e-06 0.000127992 0.012 0.0191089 
4709 1 0.0976468 0.0915971 0.684758 1.2017e-07 8.21081e-08 1.22521e-06 2.15853e-05 3.93093e-05 4.79827e-06 0.007 0.00379303 
279 1 0.0936827 0.066671 0.708726 -4.54947e-06 5.41247e-06 -1.09577e-06 2.51035e-05 -3.31919e-05 4.5928e-06 0.009 0.00806158 
95 1 0.0700763 0.0988201 0.70827 -1.73608e-05 1.00794e-05 2.04858e-06 0.000528584 -0.000112519 6.05681e-05 0.015 0.0373221 
4080 1 0.0937507 0.0871237 0.713396 -5.51473e-06 1.49085e-05 2.75239e-06 8.92829e-05 -0.000159298 -4.14733e-05 0.012 0.0191089 
232 1 0.0886281 0.0732908 0.729698 -4.09765e-06 5.6733e-06 2.31531e-07 -2.80512e-05 -0.000154241 -1.85064e-05 0.01 0.0110584 
266 1 0.0629992 0.0985325 0.753302 -4.84698e-06 9.51924e-06 -5.09468e-06 -1.74744e-05 4.62279e-05 6.44053e-05 0.009 0.00806158 
3521 1 0.0890098 0.09551 0.746772 -7.73883e-06 6.82865e-06 -4.10262e-06 -3.49176e-05 7.31308e-05 0.000161558 0.018 0.0644926 
2798 1 0.0995065 0.0646648 0.779727 -1.17873e-06 2.02098e-06 -1.43189e-06 2.53531e-06 1.1113e-05 2.73851e-06 0.011 0.0147187 
2855 1 0.0854689 0.0777218 0.769251 -3.26753e-06 2.64173e-06 -2.71671e-06 -2.62555e-05 5.55322e-05 8.16879e-06 0.011 0.0147187 
218 1 0.0664186 0.0968536 0.801808 -4.32614e-07 8.46132e-07 -6.51451e-07 -1.15303e-05 5.40948e-05 -5.08946e-05 0.011 0.0147187 
4558 1 0.0861075 0.0991246 0.801856 -5.8848e-07 1.43888e-06 -9.62217e-07 9.2504e-07 2.35353e-05 -2.76366e-05 0.009 0.00806158 
2472 1 0.0928459 0.0761906 0.802057 -4.83486e-07 1.00046e-06 -8.58131e-07 0.000124296 1.84732e-05 2.44761e-06 0.015 0.0373221 
150 1 0.0773297 0.0888429 0.821613 1.20032e-07 8.97368e-07 -8.06701e-07 0.000197536 9.09389e-06 5.76555e-06 0.013 0.0242953 
2735 1 0.0909661 0.073531 0.8456 -1.84345e-07 2.6691e-07 -2.46327e-07 -9.9729e-06 3.3126e-05 -3.71733e-05 0.012 0.0191089 
224 1 0.0645543 0.0994701 0.844109 -7.5567e-08 2.76667e-07 -1.84543e-07 -1.19726e-06 1.46534e-05 -3.25301e-05 0.011 0.0147187 
2744 1 0.0871896 0.0970584 0.843266 -2.32187e-07 5.11491e-07 -4.3749e-07 -9.69828e-06 4.73935e-05 -5.60422e-05 0.012 0.0191089 
3220 1 0.0963196 0.0875105 0.855492 -2.09473e-07 4.05041e-07 -4.05715e-07 -2.44681e-06 4.49693e-06 -4.63567e-06 0.006 0.00238862 
2495 1 0.0971128 0.0718741 0.871802 2.45631e-09 1.60714e-07 -1.66185e-07 -4.25642e-05 -5.42269e-06 -7.43194e-05 0.015 0.0373221 
3929 1 0.0765308 0.0892884 0.864352 -4.46909e-08 1.81219e-07 -1.42342e-07 -1.24743e-05 1.33341e-05 -2.18837e-05 0.013 0.0242953 
2704 1 0.0948083 0.0699436 0.903027 -2.49613e-08 4.39195e-08 -5.95068e-08 -1.49735e-05 7.60311e-06 1.61764e-05 0.012 0.0191089 
152 1 0.0805492 0.0855385 0.88971 1.57132e-08 7.21268e-08 -8.45317e-08 -8.82187e-06 2.43318e-05 -2.10785e-06 0.013 0.0242953 
4687 1 0.0942221 0.0956636 0.900083 1.30293e-08 1.22912e-07 -1.63361e-07 -2.67722e-06 4.09142e-06 8.81045e-07 0.007 0.00379303 
137 1 0.0721827 0.0937405 0.92904 6.35835e-08 2.67362e-08 -9.37992e-08 5.33631e-06 -7.60992e-08 -8.83594e-06 0.013 0.0242953 
3086 1 0.0822612 0.0768284 0.917512 -2.12961e-08 9.99089e-08 3.5714e-08 7.11441e-06 -6.26227e-06 -1.23327e-05 0.008 0.0056619 
4774 1 0.0852612 0.0886887 0.908861 2.72044e-08 8.38042e-08 -9.24289e-08 -4.72417e-07 2.75894e-06 -1.37769e-06 0.007 0.00379303 
2805 1 0.0926416 0.0729049 0.932923 1.27304e-07 2.6165e-07 4.61035e-08 2.53224e-05 -7.61685e-05 -6.50315e-05 0.011 0.0147187 
2841 1 0.0913373 0.0719924 0.962633 6.28487e-08 3.25587e-08 -7.3823e-08 8.10526e-06 -4.7855e-06 -1.43004e-05 0.011 0.0147187 
117 1 0.0704049 0.0970271 0.958119 8.65689e-08 7.52705e-09 -7.9422e-08 2.30527e-05 -1.39529e-05 -3.93826e-05 0.014 0.0303443 
4397 1 0.0788634 0.0829791 0.9756 6.7791e-08 4.51114e-08 -5.16988e-08 4.7002e-06 -6.05596e-06 -1.38871e-05 0.01 0.0110584 
4682 1 0.0894353 0.0898678 0.96294 9.25019e-08 2.88948e-08 -1.25933e-07 2.6747e-06 -3.35773e-06 -5.48609e-06 0.007 0.00379303 
2993 1 0.0970532 0.0880545 0.976779 1.05492e-07 6.41823e-08 -1.05782e-07 4.45024e-06 -7.32014e-06 -1.04517e-05 0.009 0.00806158 
2672 1 0.0877156 0.0816287 0.996757 1.00888e-07 1.19421e-07 -6.49056e-08 1.12351e-05 -1.52127e-05 -4.52079e-05 0.013 0.0242953 
4383 1 0.0918195 0.0701069 1.01622 5.16793e-08 6.84252e-08 -4.57629e-08 4.19516e-06 -1.38768e-06 -2.18779e-05 0.01 0.0110584 
223 1 0.0744212 0.0889116 1.01535 7.68083e-08 4.41049e-08 -1.00687e-08 1.68823e-05 -1.30041e-05 -2.78637e-05 0.011 0.0147187 
4259 1 0.0948024 0.0930578 1.02248 1.43426e-07 7.31278e-08 -1.11122e-07 3.33588e-05 1.85244e-06 -3.29785e-05 0.011 0.0147187 
323 1 0.0807637 0.0769246 1.02718 6.02861e-08 2.59429e-08 -2.15989e-08 5.39708e-06 6.43645e-07 -6.67e-06 0.007 0.00379303 
3172 1 0.0967911 0.061763 1.05717 1.19211e-08 -2.83472e-09 -3.24941e-08 9.05068e-07 2.40306e-07 -3.9027e-06 0.007 0.00379303 
3551 1 0.088784 0.0828838 1.0652 1.16442e-08 -2.73046e-08 -5.23954e-10 4.59677e-05 -2.00372e-05 -5.08011e-05 0.017 0.0543299 
4805 1 0.0815593 0.0747139 1.08544 1.23944e-08 -2.13239e-08 -4.84309e-09 1.61993e-06 1.82192e-08 -1.02919e-06 0.006 0.00238862 
337 1 0.0635041 0.0943287 1.08334 8.6101e-09 -1.47229e-08 1.38312e-08 3.20992e-06 -3.00645e-06 5.11152e-07 0.007 0.00379303 
4840 1 0.0677355 0.0885264 1.07251 1.19715e-08 -1.6144e-08 1.2707e-08 1.84274e-06 -9.71792e-07 -2.3992e-07 0.006 0.00238862 
4677 1 0.0761389 0.0884959 1.08479 1.59172e-08 -3.72253e-08 2.58209e-08 6.60421e-06 -2.85162e-06 2.14612e-06 0.007 0.00379303 
2335 1 0.0994335 0.0736166 1.10142 8.98721e-09 -2.10366e-08 -2.65087e-08 3.92594e-05 -9.93286e-06 -4.73949e-05 0.018 0.0644926 
4030 1 0.0703438 0.094413 1.10187 2.57958e-09 -2.84917e-08 3.04667e-08 1.01501e-05 -1.97423e-05 2.17658e-05 0.012 0.0191089 
4772 1 0.0776612 0.0800262 1.11189 9.78588e-09 -2.21201e-08 8.76748e-09 1.43333e-06 -2.59971e-06 2.95673e-06 0.007 0.00379303 
167 1 0.0668927 0.0980859 1.13464 -2.50542e-08 3.45292e-08 1.08495e-08 1.38906e-05 -2.59335e-05 6.11606e-08 0.012 0.0191089 
4786 1 0.0860594 0.0702153 1.15789 -6.11582e-10 9.68743e-10 -1.05024e-08 1.5355e-06 -8.6685e-07 -3.30331e-07 0.006 0.00238862 
3304 1 0.088721 0.0647233 1.14785 4.72589e-09 3.05452e-09 -9.1336e-09 2.99722e-07 -2.13634e-07 -1.71305e-07 0.004 0.000707738 
181 1 0.0734926 0.0911911 1.15659 -2.43881e-08 2.28072e-08 -3.73551e-09 1.57936e-05 -1.63039e-05 -1.86908e-07 0.012 0.0191089 
303 1 0.0837602 0.0752804 1.14504 -1.08684e-09 4.10348e-09 -3.03809e-09 4.45084e-06 -2.93507e-06 -3.33027e-07 0.008 0.0056619 
4157 1 0.0913743 0.0932258 1.14079 -1.66018e-08 1.50375e-08 -3.05464e-09 3.30173e-05 -3.03325e-05 1.72209e-06 0.012 0.0191089 
6710 1 0.0914696 0.0719148 1.16353 -1.25856e-08 1.46962e-08 -1.42677e-08 6.1527e-08 -6.99186e-08 -1.83465e-08 0.002 8.84672e-05 
2933 1 0.0997131 0.0632587 1.16248 -6.2777e-09 1.34962e-08 -1.28221e-08 5.1797e-06 -6.67901e-06 -9.66891e-07 0.01 0.0110584 
127 1 0.0800159 0.0997009 1.1802 -3.99095e-08 5.78226e-08 -1.7646e-08 2.13698e-05 -2.98827e-05 -2.46932e-07 0.014 0.0303443 
3092 1 0.080824 0.0782547 1.17541 -1.59285e-08 2.8886e-08 -1.47489e-09 2.32955e-06 -3.82867e-06 3.34485e-07 0.008 0.0056619 
3977 1 0.0967095 0.0859583 1.16408 -2.97376e-08 3.55654e-08 -1.63234e-08 2.2448e-05 -3.09008e-05 3.5185e-06 0.013 0.0242953 
3231 1 0.0914876 0.0647852 1.20498 -1.14452e-09 3.37613e-08 -9.42776e-09 6.22753e-08 -7.86609e-07 -1.24828e-07 0.006 0.00238862 
3637 1 0.0846235 0.0856437 1.20628 -2.64378e-08 4.60454e-08 -1.82362e-08 1.06525e-05 -2.00616e-05 -9.87344e-06 0.016 0.0452952 
2737 1 0.0983964 0.0665956 1.22294 -1.59522e-08 2.89061e-08 -6.94274e-09 -1.44899e-06 -4.74834e-06 -4.49079e-06 0.012 0.0191089 
345 1 0.066476 0.0912094 1.25082 -1.47173e-08 4.6816e-08 -1.27372e-08 1.36053e-07 4.70937e-07 -8.1235e-07 0.007 0.00379303 
3670 1 0.0848471 0.0856155 1.23817 -2.55229e-08 5.66578e-08 -1.32987e-08 -2.46314e-06 1.65492e-06 -1.79132e-05 0.016 0.0452952 
3247 1 0.0967369 0.0593476 1.26397 -1.07891e-08 1.83532e-08 -2.23567e-09 -1.59582e-07 3.72148e-07 -2.69625e-07 0.005 0.0013823 
2717 1 0.0898422 0.0748614 1.2634 -2.73556e-08 2.8909e-08 -4.55701e-09 -3.42864e-06 6.99596e-06 -6.80814e-06 0.012 0.0191089 
3259 1 0.0742962 0.0805591 1.25561 -1.5752e-08 4.33189e-08 -9.4519e-09 8.98272e-08 3.02516e-07 -2.37959e-07 0.005 0.0013823 
4679 1 0.0775185 0.0914647 1.25942 -2.28456e-08 6.99727e-08 -2.07253e-08 4.34813e-07 2.03576e-06 -1.45308e-06 0.007 0.00379303 
3712 1 0.0977727 0.0978264 1.27512 -1.03942e-07 7.23029e-08 -9.96599e-09 -3.72768e-05 6.98604e-05 -6.17049e-05 0.015 0.0373221 
2835 1 0.0901509 0.0730786 1.2862 -1.68253e-08 1.26559e-08 1.09465e-09 -4.4585e-06 6.87421e-06 -2.88755e-06 0.011 0.0147187 
402 1 0.0773994 0.0746226 1.29175 -1.09026e-08 9.92753e-09 -3.25536e-09 -6.49819e-08 1.12327e-07 -1.03506e-08 0.003 0.000298577 
156 1 0.0758694 0.0902607 1.29472 -1.85042e-08 1.8955e-08 -1.12716e-08 -6.56972e-06 1.64141e-05 -3.51285e-06 0.013 0.0242953 
2527 1 0.0975161 0.0725169 1.31101 -1.9998e-08 -6.32339e-09 8.66265e-09 -3.0412e-05 1.49759e-05 -4.80295e-06 0.015 0.0373221 
229 1 0.0801252 0.0903875 1.31727 -1.50969e-08 -3.07045e-09 -1.21382e-08 -3.94254e-06 1.04625e-05 -1.26775e-06 0.01 0.0110584 
4548 1 0.0712786 0.0891326 1.33396 1.15104e-08 -1.72636e-08 -4.18309e-09 -3.93636e-06 4.38363e-06 1.24695e-06 0.009 0.00806158 
2520 1 0.0921437 0.0789199 1.33969 4.83155e-09 -1.786e-08 3.12065e-09 -2.57876e-05 1.42487e-05 4.75186e-06 0.015 0.0373221 
4718 1 0.0939258 0.0959576 1.32599 -9.85068e-09 -1.68989e-08 -8.98299e-09 -2.03621e-06 2.95682e-06 -2.18397e-07 0.007 0.00379303 
2830 1 0.0861337 0.0771072 1.36479 1.58266e-08 -2.10152e-08 -5.65492e-10 -4.94324e-06 2.87576e-06 2.91887e-06 0.011 0.0147187 
246 1 0.0956298 0.0699379 1.38199 1.73276e-08 -1.83482e-08 -2.79084e-09 -1.89827e-06 6.17122e-07 2.90803e-06 0.01 0.0110584 
26 1 0.0805494 0.0926322 1.38849 3.65873e-08 -3.89713e-08 -9.76097e-09 -5.95967e-06 1.10342e-05 1.81052e-05 0.018 0.0644926 
341 1 0.0875271 0.0701598 1.39693 1.16606e-08 -2.33371e-08 -3.72247e-09 -5.45722e-07 6.26589e-07 8.97446e-07 0.007 0.00379303 
4137 1 0.0969355 0.0681846 1.41353 2.49746e-08 -3.60677e-08 -7.15396e-09 -3.93396e-06 -2.69103e-06 9.36025e-06 0.012 0.0191089 
3123 1 0.0980209 0.0608744 1.3961 2.18839e-08 -1.22954e-08 -3.85064e-09 -9.7784e-07 -9.75965e-08 1.33587e-06 0.007 0.00379303 
271 1 0.0626525 0.0990289 1.40766 2.66507e-08 -2.94605e-08 -1.18162e-08 1.76579e-07 9.75169e-07 9.3072e-07 0.009 0.00806158 
4756 1 0.0810303 0.0765942 1.40759 1.65951e-08 -2.99179e-08 -5.68785e-09 1.48141e-08 2.44747e-07 9.16479e-07 0.007 0.00379303 
59 1 0.0826496 0.0876424 1.42766 2.82749e-08 -3.89357e-08 -1.44818e-08 7.05624e-06 -3.16731e-06 1.57866e-05 0.016 0.0452952 
4902 1 0.0845154 0.0703249 1.43937 1.23157e-08 -2.4335e-08 -6.63839e-09 -5.62106e-08 -9.27702e-08 2.89216e-07 0.005 0.0013823 
5018 1 0.0776721 0.0743601 1.4403 9.43596e-09 -1.13087e-08 -3.90639e-09 -3.80753e-08 -4.16709e-08 5.29448e-08 0.003 0.000298577 
2507 1 0.0995648 0.0716669 1.47029 2.10082e-08 -4.16242e-08 -8.51083e-09 8.3693e-06 -1.91911e-05 1.72431e-06 0.015 0.0373221 
355 1 0.0603101 0.0971419 1.4791 1.01607e-08 -1.04408e-08 -6.86604e-09 -1.93158e-07 -5.26056e-07 -1.42536e-07 0.006 0.00238862 
46 1 0.0756277 0.0961748 1.46198 1.97107e-08 -3.38348e-08 -2.20499e-08 7.32547e-06 -1.07771e-05 1.5241e-05 0.017 0.0543299 
4153 1 0.0901378 0.0745042 1.49536 1.63347e-08 -2.09079e-08 -1.20767e-09 3.9245e-06 -6.82242e-06 -5.88189e-07 0.012 0.0191089 
3308 1 0.0818248 0.0715824 1.50869 9.32063e-09 -1.95162e-09 1.05031e-09 1.49798e-07 -2.73853e-08 -3.94392e-08 0.004 0.000707738 
2591 1 0.0950827 0.0724785 1.52078 1.74184e-08 -1.01131e-08 2.84283e-09 6.14648e-06 -8.12095e-06 2.39561e-07 0.014 0.0303443 
2904 1 0.0770993 0.0848227 1.50975 1.79787e-08 -1.0993e-08 3.3646e-09 1.31007e-06 -1.43437e-06 -1.3566e-06 0.01 0.0110584 
2982 1 0.0936439 0.0668605 1.54302 1.68749e-08 -1.07826e-08 1.10729e-08 -7.06081e-07 7.17658e-07 -7.7917e-07 0.009 0.00806158 
4311 1 0.0973312 0.0940328 1.55134 1.567e-08 -1.40295e-08 4.11285e-08 -2.34262e-07 2.80753e-06 -3.24647e-06 0.01 0.0110584 
88 1 0.0769611 0.0919537 1.53704 2.33934e-08 -3.92995e-09 1.22884e-08 -2.30993e-08 -1.23546e-06 1.14499e-06 0.015 0.0373221 
2474 1 0.0991288 0.0699067 1.56617 -1.23243e-08 -4.68248e-08 3.69346e-08 -2.02289e-06 1.88818e-05 -1.12099e-05 0.015 0.0373221 
3956 1 0.0779808 0.0881681 1.56474 1.58401e-08 -1.94875e-08 1.22869e-08 -2.05391e-06 1.22911e-05 -4.07022e-07 0.013 0.0242953 
2204 1 0.0946604 0.088954 1.57379 -1.53993e-09 -3.43751e-08 3.8892e-08 1.21445e-07 1.75212e-06 -6.57925e-07 0.006 0.00238862 
1133 1 0.0890631 0.104893 0.000999839 -0.0104718 -0.0412998 -1.00815e-12 1.02917e-17 -2.1515e-16 0 0.001 1.10584e-05 
5055 1 0.0391719 0.130658 0.000999839 -0.0284457 0.0255908 -2.20311e-13 1.54034e-16 -1.81226e-17 0 0.001 1.10584e-05 
8405 1 0.0375127 0.137281 0.000999753 -4.45003e-10 3.22265e-08 -2.58169e-08 -1.09351e-08 -4.66756e-08 8.21062e-10 0.001 1.10584e-05 
10054 1 0.0443819 0.143666 0.000999046 3.27654e-08 -4.3595e-09 -1.43716e-08 -5.04294e-08 -5.07541e-09 -3.87677e-10 0.001 1.10584e-05 
6738 1 0.0634938 0.138509 0.000999839 -0.0621148 0.0218544 9.61575e-13 -2.30639e-16 -4.09123e-17 0 0.001 1.10584e-05 
6740 1 0.0963553 0.131442 0.000999325 -1.3051e-08 -1.03605e-08 -1.50352e-08 -7.00823e-09 -1.14687e-08 -2.53965e-09 0.001 1.10584e-05 
1047 1 0.0242764 0.172425 0.00499765 -0.00696431 -0.0347559 2.21439e-12 -6.1265e-15 -2.44492e-14 0 0.005 0.0013823 
1123 1 0.0541486 0.17346 0.000921182 -2.11187e-09 5.43023e-09 -1.99478e-08 7.09954e-09 3.26298e-09 6.70698e-09 0.001 1.10584e-05 
4983 1 0.0709542 0.167483 0.002999 0.00705431 -0.00359603 -1.43125e-12 1.49337e-15 -7.2146e-16 0 0.003 0.000298577 
191 1 0.0576776 0.111363 0.0119912 5.80962e-08 -5.18055e-08 -6.26311e-10 -1.08048e-05 1.48008e-05 -1.52155e-05 0.012 0.0191089 
394 1 0.072617 0.111259 0.0177151 8.53695e-08 -6.79839e-08 -2.57757e-08 -5.81002e-07 1.32778e-07 -6.87479e-07 0.004 0.000707738 
244 1 0.0767053 0.122189 0.00998412 1.81591e-08 -3.00796e-08 -2.46183e-08 -2.35883e-06 -1.38732e-06 -7.36416e-06 0.01 0.0110584 
4458 1 0.0779884 0.103269 0.00898238 7.41731e-08 -3.88792e-08 -3.56518e-08 -5.55217e-06 -1.72187e-06 -1.06581e-05 0.009 0.00806158 
82 1 0.0452972 0.135798 0.0148993 -5.12964e-08 -3.63662e-08 -4.27237e-08 4.55079e-07 1.4096e-05 3.11117e-06 0.015 0.0373221 
100 1 0.0783024 0.146668 0.0147123 -3.83137e-08 -6.64333e-09 -3.20023e-08 2.90118e-05 -2.11829e-05 9.24586e-06 0.015 0.0373221 
304 1 0.0333458 0.158328 0.00799485 0.00586605 -0.0341581 3.211e-12 -1.49382e-14 -9.73818e-14 0 0.008 0.0056619 
605 1 0.0576776 0.166927 0.0138618 -1.75777e-08 1.72972e-08 -3.33456e-08 1.75355e-05 -9.11909e-06 3.12154e-05 0.014 0.0303443 
392 1 0.0776239 0.16177 0.0262129 -5.73555e-08 -2.90289e-09 -2.89518e-08 8.95142e-07 -6.30341e-07 6.58765e-07 0.004 0.000707738 
253 1 0.0482725 0.121161 0.0348921 -4.52972e-08 -3.07165e-08 -4.77553e-08 1.58113e-05 -9.29819e-07 2.50314e-07 0.01 0.0110584 
39 1 0.0747603 0.124918 0.037591 -6.50436e-08 -2.83548e-08 -6.24462e-08 7.30374e-05 -9.734e-05 -5.12376e-05 0.017 0.0543299 
400 1 0.0822967 0.110405 0.0489353 -5.74795e-08 -1.64637e-08 -5.35455e-08 3.62481e-07 -8.79022e-07 -6.83307e-07 0.003 0.000298577 
118 1 0.0393239 0.145291 0.0415201 -4.54447e-08 -2.36991e-08 -7.13204e-08 1.0158e-06 -6.74848e-06 1.05575e-05 0.014 0.0303443 
358 1 0.0551776 0.136209 0.0334141 -7.38808e-08 -6.03316e-08 -7.41713e-08 9.48494e-07 9.38234e-07 -8.63974e-08 0.006 0.00238862 
401 1 0.0616825 0.14003 0.0383196 -7.52325e-08 -6.0199e-08 -1.02763e-07 1.56325e-07 -2.26668e-07 2.85576e-07 0.003 0.000298577 
612 1 0.0363668 0.171061 0.0312841 -3.40471e-08 4.00385e-09 -6.83516e-08 7.19034e-06 -1.31827e-05 2.53195e-05 0.014 0.0303443 
4358 1 0.0605554 0.151175 0.0317267 -4.03379e-08 -5.9272e-08 -7.00602e-08 -1.0098e-05 -1.6203e-06 8.77819e-06 0.01 0.0110584 
890 1 0.0657203 0.174755 0.0499358 -7.23917e-08 2.00188e-09 -6.42943e-08 1.18992e-05 -3.49951e-06 1.90866e-05 0.009 0.00806158 
6171 1 0.0694873 0.168952 0.0333598 -5.24058e-08 1.35154e-08 -4.42872e-08 1.08966e-05 -7.1173e-06 1.25443e-05 0.009 0.00806158 
3407 1 0.0929465 0.156433 0.0446604 -8.99653e-08 -1.77281e-08 -2.62757e-08 0.000168614 -0.00011249 3.24059e-05 0.02 0.0884672 
299 1 0.0746517 0.11989 0.0621172 -6.66083e-08 -2.30584e-08 -5.40508e-08 8.25137e-06 -8.56704e-06 -8.43438e-06 0.008 0.0056619 
57 1 0.0517515 0.1265 0.0612073 -5.97435e-08 -2.84017e-08 -6.02115e-08 4.49052e-05 -3.75106e-05 -3.30189e-05 0.016 0.0452952 
403 1 0.0698574 0.128766 0.0664995 -7.82311e-08 -2.10436e-08 -6.58474e-08 4.10724e-07 -5.33869e-07 -3.92148e-07 0.003 0.000298577 
249 1 0.0741056 0.139399 0.0603451 -9.53479e-08 -2.87353e-08 -6.46053e-08 2.08072e-05 -1.81508e-05 -6.32513e-06 0.01 0.0110584 
3702 1 0.0958217 0.128066 0.0647032 -9.4023e-08 -1.43461e-08 -4.1323e-08 6.22967e-05 -7.47555e-05 -4.92485e-05 0.015 0.0373221 
585 1 0.0298986 0.168129 0.0592413 -7.00749e-08 -3.80081e-08 -9.2131e-08 -1.20028e-05 -4.79359e-05 3.06989e-05 0.015 0.0373221 
130 1 0.0559204 0.157276 0.058877 -8.30331e-08 -3.08284e-08 -1.01345e-07 4.07247e-05 -2.00253e-05 2.06151e-05 0.013 0.0242953 
175 1 0.0764526 0.165478 0.0702313 -1.20498e-07 -4.82155e-08 -4.74609e-08 4.99413e-05 -1.95497e-05 1.29864e-05 0.012 0.0191089 
22 1 0.0717074 0.103591 0.0882347 -6.16942e-08 -3.70567e-08 -6.81921e-08 0.000258953 -0.000226131 -0.000183194 0.019 0.0758496 
103 1 0.0385012 0.147642 0.0776475 -1.16485e-07 -5.74272e-08 -1.08614e-07 7.64552e-06 -5.9158e-05 7.14991e-06 0.014 0.0303443 
225 1 0.0633201 0.144403 0.0776925 -1.38e-07 -4.77689e-08 -9.03027e-08 5.2366e-05 -2.69753e-05 -1.02309e-05 0.011 0.0147187 
132 1 0.0719597 0.134023 0.097606 -1.41206e-07 -5.91651e-08 -9.14009e-08 7.78761e-05 -7.46525e-05 -1.98752e-05 0.013 0.0242953 
185 1 0.0858796 0.146641 0.0813638 -1.34516e-07 -5.09649e-08 -5.86588e-08 5.65165e-05 -3.20157e-05 -9.72209e-07 0.012 0.0191089 
389 1 0.0169542 0.172931 0.0956004 -1.4196e-08 -1.28542e-08 -2.32769e-08 1.60017e-07 -3.19578e-07 -2.6816e-07 0.004 0.000707738 
230 1 0.0258485 0.164989 0.0882724 -6.36486e-08 -3.44244e-08 -7.67528e-08 -3.47125e-06 -1.47266e-05 -1.63864e-06 0.01 0.0110584 
331 1 0.0421215 0.162212 0.0923259 -1.44407e-07 -1.54851e-07 -1.577e-07 -1.46147e-05 -1.08533e-05 8.26631e-06 0.007 0.00379303 
697 1 0.0491232 0.172178 0.0777479 -1.48949e-07 -9.63304e-08 -1.13018e-07 2.32014e-05 -5.07238e-05 4.42939e-05 0.012 0.0191089 
177 1 0.0623981 0.160535 0.0939923 -1.94007e-07 -9.06659e-08 -7.15225e-08 7.39703e-05 -4.38221e-05 -1.73963e-06 0.012 0.0191089 
4256 1 0.0917848 0.165303 0.0934182 -1.27894e-07 -8.44836e-08 -2.9061e-08 2.84756e-05 -4.39727e-06 2.07402e-05 0.011 0.0147187 
24 1 0.0619303 0.115867 0.1216 -4.58943e-08 -1.81941e-08 -7.39068e-08 0.000243787 -0.000276431 -0.000126546 0.018 0.0644926 
4710 1 0.0850522 0.120033 0.103312 -1.04852e-07 -1.9123e-08 -5.84851e-08 1.19696e-05 -1.41311e-05 -7.2102e-06 0.007 0.00379303 
791 1 0.034845 0.147976 0.116825 -4.50363e-08 -1.82987e-08 -2.46362e-08 2.45055e-05 -2.59505e-05 -1.56457e-05 0.011 0.0147187 